file 3039640 1447251235                                         
version 2
run nodebug-0-20151111-15:09:54-26953
attr RB 100
attr configname nodebug
attr datetime 20151111-15:09:54
attr experiment nodebug
attr inifile omnetpp.ini
attr iterationvars "$queue=2MiB, $maxBytesPerTti=3MiB, $scheduler=\"MAXCI\", $RB=100, $numUEs=1000"
attr iterationvars2 "$queue=2MiB, $maxBytesPerTti=3MiB, $scheduler=\"MAXCI\", $RB=100, $numUEs=1000, $repetition=0"
attr maxBytesPerTti 3MiB
attr measurement "$queue=2MiB, $maxBytesPerTti=3MiB, $scheduler=\"MAXCI\", $RB=100, $numUEs=1000"
attr network scenario
attr numUEs 1000
attr processid 26953
attr queue 2MiB
attr repetition 0
attr replication #0
attr resultdir results
attr runnumber 0
attr scheduler "\"MAXCI\""
attr seedset 0

vector 14  scenario.eNodeB1.ppp.queue  queueLength:vector  ETV
attr interpolationmode  sample-hold
attr title  "queue length, vector"
vector 15  scenario.eNodeB1.ppp.ppp  txState:vector  ETV
attr interpolationmode  sample-hold
attr title  "tx state, vector"
vector 35  scenario.server.ppp[0].queue  queueLength:vector  ETV
attr interpolationmode  sample-hold
attr title  "queue length, vector"
vector 36  scenario.server.ppp[0].ppp  txState:vector  ETV
attr interpolationmode  sample-hold
attr title  "tx state, vector"
vector 73  scenario.node[0].veinsmobility  posx  ETV
vector 74  scenario.node[0].veinsmobility  posy  ETV
vector 108  scenario.node[1].veinsmobility  posx  ETV
vector 109  scenario.node[1].veinsmobility  posy  ETV
vector 5  scenario.eNodeB1.nic.mac  receivedPacketFromLowerLayer:vector(packetBytes)  ETV
attr interpolationmode  none
attr source  receivedPacketFromLowerLayer
vector 66  scenario.node[0].mobility  posx  ETV
vector 67  scenario.node[0].mobility  posy  ETV
vector 68  scenario.node[0].mobility  speed  ETV
vector 75  scenario.node[0].veinsmobility  speed  ETV
vector 101  scenario.node[1].mobility  posx  ETV
vector 102  scenario.node[1].mobility  posy  ETV
vector 103  scenario.node[1].mobility  speed  ETV
vector 110  scenario.node[1].veinsmobility  speed  ETV
vector 69  scenario.node[0].mobility  acceleration  ETV
vector 70  scenario.node[0].mobility  co2emission  ETV
vector 76  scenario.node[0].veinsmobility  acceleration  ETV
vector 77  scenario.node[0].veinsmobility  co2emission  ETV
vector 104  scenario.node[1].mobility  acceleration  ETV
vector 105  scenario.node[1].mobility  co2emission  ETV
vector 111  scenario.node[1].veinsmobility  acceleration  ETV
vector 112  scenario.node[1].veinsmobility  co2emission  ETV
vector 45  scenario.node[0].decisionMaker  dontCareMessagesSent:vector  ETV
attr source  dontCareMessagesSent
attr title  "dontCareMessagesSent, vector"
vector 80  scenario.node[1].decisionMaker  dontCareMessagesSent:vector  ETV
attr source  dontCareMessagesSent
attr title  "dontCareMessagesSent, vector"
vector 83  scenario.node[1].UDP  sentPk:vector(packetBytes)  ETV
attr interpolationmode  none
attr source  sentPk
attr title  "packets sent, vector(packetBytes)"
vector 90  scenario.node[1].nic.pdcpRrc  receivedPacketFromUpperLayer:vector(packetBytes)  ETV
attr interpolationmode  none
attr source  receivedPacketFromUpperLayer
vector 93  scenario.node[1].nic.pdcpRrc  sentPacketToLowerLayer:vector(packetBytes)  ETV
attr interpolationmode  none
attr source  sentPacketToLowerLayer
vector 94  scenario.node[1].nic.mac  receivedPacketFromUpperLayer:vector(packetBytes)  ETV
attr interpolationmode  none
attr source  receivedPacketFromUpperLayer
vector 97  scenario.node[1].nic.mac  sentPacketToLowerLayer:vector(packetBytes)  ETV
attr interpolationmode  none
attr source  sentPacketToLowerLayer
vector 81  scenario.node[1].decisionMaker  DSRCMessagesReceived:vector  ETV
attr source  DSRCMessagesReceived
attr title  "DSRCMessagesReceived, vector"
vector 7  scenario.eNodeB1.nic.mac  sentPacketToLowerLayer:vector(packetBytes)  ETV
attr interpolationmode  none
attr source  sentPacketToLowerLayer
vector 95  scenario.node[1].nic.mac  receivedPacketFromLowerLayer:vector(packetBytes)  ETV
attr interpolationmode  none
attr source  receivedPacketFromLowerLayer
vector 10  scenario.eNodeB1.nic.phy  averageCqiUlvect:vector  ETV
attr source  averageCqiUlvect
attr title  "Average Cqi reported in UL, vector"
attr unit  cqi
vector 8  scenario.eNodeB1.nic.mac  measuredItbs:vector  ETV
attr source  measuredItbs
attr title  "TBS index, vector"
attr unit  ""
vector 6  scenario.eNodeB1.nic.mac  sentPacketToUpperLayer:vector(packetBytes)  ETV
attr interpolationmode  none
attr source  sentPacketToUpperLayer
vector 1  scenario.eNodeB1.nic.pdcpRrc  receivedPacketFromLowerLayer:vector(packetBytes)  ETV
attr interpolationmode  none
attr source  receivedPacketFromLowerLayer
vector 2  scenario.eNodeB1.nic.pdcpRrc  sentPacketToUpperLayer:vector(packetBytes)  ETV
attr interpolationmode  none
attr source  sentPacketToUpperLayer
vector 11  scenario.eNodeB1.ppp.queue  rcvdPk:vector(packetBytes)  ETV
attr interpolationmode  none
attr title  "received packets, vector(packetBytes)"
vector 13  scenario.eNodeB1.ppp.queue  queueingTime:vector  ETV
attr interpolationmode  none
attr title  "queueing time, vector"
vector 20  scenario.eNodeB1.ppp.ppp  rcvdPkFromHL:vector(packetBytes)  ETV
attr interpolationmode  none
attr source  packetReceivedFromUpper
attr title  "packets received from higher layer, vector(packetBytes)"
vector 16  scenario.eNodeB1.ppp.ppp  txPk:vector(packetBytes)  ETV
attr interpolationmode  none
attr source  packetSentToLower
attr title  "packets transmitted, vector(packetBytes)"
vector 38  scenario.server.ppp[0].ppp  rxPkOk:vector(packetBytes)  ETV
attr interpolationmode  none
attr source  rxPkOk
attr title  "packets received OK, vector(packetBytes)"
vector 42  scenario.server.ppp[0].ppp  passedUpPk:vector(packetBytes)  ETV
attr interpolationmode  none
attr source  packetSentToUpper
attr title  "packets passed to higher layer, vector(packetBytes)"
vector 48  scenario.node[0].UDP  sentPk:vector(packetBytes)  ETV
attr interpolationmode  none
attr source  sentPk
attr title  "packets sent, vector(packetBytes)"
vector 46  scenario.node[0].decisionMaker  DSRCMessagesReceived:vector  ETV
attr source  DSRCMessagesReceived
attr title  "DSRCMessagesReceived, vector"
vector 55  scenario.node[0].nic.pdcpRrc  receivedPacketFromUpperLayer:vector(packetBytes)  ETV
attr interpolationmode  none
attr source  receivedPacketFromUpperLayer
vector 58  scenario.node[0].nic.pdcpRrc  sentPacketToLowerLayer:vector(packetBytes)  ETV
attr interpolationmode  none
attr source  sentPacketToLowerLayer
vector 59  scenario.node[0].nic.mac  receivedPacketFromUpperLayer:vector(packetBytes)  ETV
attr interpolationmode  none
attr source  receivedPacketFromUpperLayer
vector 62  scenario.node[0].nic.mac  sentPacketToLowerLayer:vector(packetBytes)  ETV
attr interpolationmode  none
attr source  sentPacketToLowerLayer
vector 60  scenario.node[0].nic.mac  receivedPacketFromLowerLayer:vector(packetBytes)  ETV
attr interpolationmode  none
attr source  receivedPacketFromLowerLayer
vector 143  scenario.node[2].veinsmobility  posx  ETV
vector 144  scenario.node[2].veinsmobility  posy  ETV
vector 178  scenario.node[3].veinsmobility  posx  ETV
vector 179  scenario.node[3].veinsmobility  posy  ETV
vector 136  scenario.node[2].mobility  posx  ETV
vector 137  scenario.node[2].mobility  posy  ETV
vector 138  scenario.node[2].mobility  speed  ETV
vector 145  scenario.node[2].veinsmobility  speed  ETV
vector 139  scenario.node[2].mobility  acceleration  ETV
vector 140  scenario.node[2].mobility  co2emission  ETV
vector 146  scenario.node[2].veinsmobility  acceleration  ETV
vector 147  scenario.node[2].veinsmobility  co2emission  ETV
vector 171  scenario.node[3].mobility  posx  ETV
vector 172  scenario.node[3].mobility  posy  ETV
vector 173  scenario.node[3].mobility  speed  ETV
vector 180  scenario.node[3].veinsmobility  speed  ETV
vector 116  scenario.node[2].decisionMaker  DSRCMessagesReceived:vector  ETV
attr source  DSRCMessagesReceived
attr title  "DSRCMessagesReceived, vector"
vector 151  scenario.node[3].decisionMaker  DSRCMessagesReceived:vector  ETV
attr source  DSRCMessagesReceived
attr title  "DSRCMessagesReceived, vector"
vector 174  scenario.node[3].mobility  acceleration  ETV
vector 175  scenario.node[3].mobility  co2emission  ETV
vector 181  scenario.node[3].veinsmobility  acceleration  ETV
vector 182  scenario.node[3].veinsmobility  co2emission  ETV
vector 115  scenario.node[2].decisionMaker  dontCareMessagesSent:vector  ETV
attr source  dontCareMessagesSent
attr title  "dontCareMessagesSent, vector"
vector 118  scenario.node[2].UDP  sentPk:vector(packetBytes)  ETV
attr interpolationmode  none
attr source  sentPk
attr title  "packets sent, vector(packetBytes)"
vector 125  scenario.node[2].nic.pdcpRrc  receivedPacketFromUpperLayer:vector(packetBytes)  ETV
attr interpolationmode  none
attr source  receivedPacketFromUpperLayer
vector 128  scenario.node[2].nic.pdcpRrc  sentPacketToLowerLayer:vector(packetBytes)  ETV
attr interpolationmode  none
attr source  sentPacketToLowerLayer
vector 129  scenario.node[2].nic.mac  receivedPacketFromUpperLayer:vector(packetBytes)  ETV
attr interpolationmode  none
attr source  receivedPacketFromUpperLayer
vector 132  scenario.node[2].nic.mac  sentPacketToLowerLayer:vector(packetBytes)  ETV
attr interpolationmode  none
attr source  sentPacketToLowerLayer
vector 130  scenario.node[2].nic.mac  receivedPacketFromLowerLayer:vector(packetBytes)  ETV
attr interpolationmode  none
attr source  receivedPacketFromLowerLayer
vector 150  scenario.node[3].decisionMaker  dontCareMessagesSent:vector  ETV
attr source  dontCareMessagesSent
attr title  "dontCareMessagesSent, vector"
vector 153  scenario.node[3].UDP  sentPk:vector(packetBytes)  ETV
attr interpolationmode  none
attr source  sentPk
attr title  "packets sent, vector(packetBytes)"
vector 160  scenario.node[3].nic.pdcpRrc  receivedPacketFromUpperLayer:vector(packetBytes)  ETV
attr interpolationmode  none
attr source  receivedPacketFromUpperLayer
vector 163  scenario.node[3].nic.pdcpRrc  sentPacketToLowerLayer:vector(packetBytes)  ETV
attr interpolationmode  none
attr source  sentPacketToLowerLayer
vector 164  scenario.node[3].nic.mac  receivedPacketFromUpperLayer:vector(packetBytes)  ETV
attr interpolationmode  none
attr source  receivedPacketFromUpperLayer
vector 167  scenario.node[3].nic.mac  sentPacketToLowerLayer:vector(packetBytes)  ETV
attr interpolationmode  none
attr source  sentPacketToLowerLayer
vector 165  scenario.node[3].nic.mac  receivedPacketFromLowerLayer:vector(packetBytes)  ETV
attr interpolationmode  none
attr source  receivedPacketFromLowerLayer
vector 114  scenario.node[2].decisionMaker  lteMessagesSent:vector  ETV
attr source  lteMessagesSent
attr title  "lteMessagesSent, vector"
vector 23  scenario.server.udp  rcvdPk:vector(packetBytes)  ETV
attr interpolationmode  none
attr source  rcvdPk
attr title  "packets received, vector(packetBytes)"
vector 24  scenario.server.udp  passedUpPk:vector(count)  ETV
attr interpolationmode  none
attr title  "packets passed up, vector(count)"
vector 22  scenario.server.udp  sentPk:vector(packetBytes)  ETV
attr interpolationmode  none
attr source  sentPk
attr title  "packets sent, vector(packetBytes)"
vector 32  scenario.server.ppp[0].queue  rcvdPk:vector(packetBytes)  ETV
attr interpolationmode  none
attr title  "received packets, vector(packetBytes)"
vector 34  scenario.server.ppp[0].queue  queueingTime:vector  ETV
attr interpolationmode  none
attr title  "queueing time, vector"
vector 41  scenario.server.ppp[0].ppp  rcvdPkFromHL:vector(packetBytes)  ETV
attr interpolationmode  none
attr source  packetReceivedFromUpper
attr title  "packets received from higher layer, vector(packetBytes)"
vector 37  scenario.server.ppp[0].ppp  txPk:vector(packetBytes)  ETV
attr interpolationmode  none
attr source  packetSentToLower
attr title  "packets transmitted, vector(packetBytes)"
vector 17  scenario.eNodeB1.ppp.ppp  rxPkOk:vector(packetBytes)  ETV
attr interpolationmode  none
attr source  rxPkOk
attr title  "packets received OK, vector(packetBytes)"
vector 21  scenario.eNodeB1.ppp.ppp  passedUpPk:vector(packetBytes)  ETV
attr interpolationmode  none
attr source  packetSentToUpper
attr title  "packets passed to higher layer, vector(packetBytes)"
vector 0  scenario.eNodeB1.nic.pdcpRrc  receivedPacketFromUpperLayer:vector(packetBytes)  ETV
attr interpolationmode  none
attr source  receivedPacketFromUpperLayer
vector 3  scenario.eNodeB1.nic.pdcpRrc  sentPacketToLowerLayer:vector(packetBytes)  ETV
attr interpolationmode  none
attr source  sentPacketToLowerLayer
vector 4  scenario.eNodeB1.nic.mac  receivedPacketFromUpperLayer:vector(packetBytes)  ETV
attr interpolationmode  none
attr source  receivedPacketFromUpperLayer
vector 134  scenario.node[2].nic.phy  averageCqiDlvect:vector  ETV
attr source  averageCqiDlvect
attr title  "Average Cqi reported in DL, vector"
attr unit  cqi
vector 131  scenario.node[2].nic.mac  sentPacketToUpperLayer:vector(packetBytes)  ETV
attr interpolationmode  none
attr source  sentPacketToUpperLayer
vector 126  scenario.node[2].nic.pdcpRrc  receivedPacketFromLowerLayer:vector(packetBytes)  ETV
attr interpolationmode  none
attr source  receivedPacketFromLowerLayer
vector 127  scenario.node[2].nic.pdcpRrc  sentPacketToUpperLayer:vector(packetBytes)  ETV
attr interpolationmode  none
attr source  sentPacketToUpperLayer
vector 119  scenario.node[2].UDP  rcvdPk:vector(packetBytes)  ETV
attr interpolationmode  none
attr source  rcvdPk
attr title  "packets received, vector(packetBytes)"
vector 120  scenario.node[2].UDP  passedUpPk:vector(count)  ETV
attr interpolationmode  none
attr title  "packets passed up, vector(count)"
vector 117  scenario.node[2].decisionMaker  lteMessagesReceived:vector  ETV
attr source  lteMessagesReceived
attr title  "lteMessagesReceived, vector"
vector 79  scenario.node[1].decisionMaker  lteMessagesSent:vector  ETV
attr source  lteMessagesSent
attr title  "lteMessagesSent, vector"
vector 99  scenario.node[1].nic.phy  averageCqiDlvect:vector  ETV
attr source  averageCqiDlvect
attr title  "Average Cqi reported in DL, vector"
attr unit  cqi
vector 96  scenario.node[1].nic.mac  sentPacketToUpperLayer:vector(packetBytes)  ETV
attr interpolationmode  none
attr source  sentPacketToUpperLayer
vector 91  scenario.node[1].nic.pdcpRrc  receivedPacketFromLowerLayer:vector(packetBytes)  ETV
attr interpolationmode  none
attr source  receivedPacketFromLowerLayer
vector 92  scenario.node[1].nic.pdcpRrc  sentPacketToUpperLayer:vector(packetBytes)  ETV
attr interpolationmode  none
attr source  sentPacketToUpperLayer
vector 84  scenario.node[1].UDP  rcvdPk:vector(packetBytes)  ETV
attr interpolationmode  none
attr source  rcvdPk
attr title  "packets received, vector(packetBytes)"
vector 85  scenario.node[1].UDP  passedUpPk:vector(count)  ETV
attr interpolationmode  none
attr title  "packets passed up, vector(count)"
vector 82  scenario.node[1].decisionMaker  lteMessagesReceived:vector  ETV
attr source  lteMessagesReceived
attr title  "lteMessagesReceived, vector"
vector 44  scenario.node[0].decisionMaker  lteMessagesSent:vector  ETV
attr source  lteMessagesSent
attr title  "lteMessagesSent, vector"
vector 64  scenario.node[0].nic.phy  averageCqiDlvect:vector  ETV
attr source  averageCqiDlvect
attr title  "Average Cqi reported in DL, vector"
attr unit  cqi
vector 61  scenario.node[0].nic.mac  sentPacketToUpperLayer:vector(packetBytes)  ETV
attr interpolationmode  none
attr source  sentPacketToUpperLayer
vector 56  scenario.node[0].nic.pdcpRrc  receivedPacketFromLowerLayer:vector(packetBytes)  ETV
attr interpolationmode  none
attr source  receivedPacketFromLowerLayer
vector 57  scenario.node[0].nic.pdcpRrc  sentPacketToUpperLayer:vector(packetBytes)  ETV
attr interpolationmode  none
attr source  sentPacketToUpperLayer
vector 49  scenario.node[0].UDP  rcvdPk:vector(packetBytes)  ETV
attr interpolationmode  none
attr source  rcvdPk
attr title  "packets received, vector(packetBytes)"
vector 50  scenario.node[0].UDP  passedUpPk:vector(count)  ETV
attr interpolationmode  none
attr title  "packets passed up, vector(count)"
vector 47  scenario.node[0].decisionMaker  lteMessagesReceived:vector  ETV
attr source  lteMessagesReceived
attr title  "lteMessagesReceived, vector"
vector 213  scenario.node[4].veinsmobility  posx  ETV
vector 214  scenario.node[4].veinsmobility  posy  ETV
vector 206  scenario.node[4].mobility  posx  ETV
vector 207  scenario.node[4].mobility  posy  ETV
vector 208  scenario.node[4].mobility  speed  ETV
vector 215  scenario.node[4].veinsmobility  speed  ETV
vector 209  scenario.node[4].mobility  acceleration  ETV
vector 210  scenario.node[4].mobility  co2emission  ETV
vector 216  scenario.node[4].veinsmobility  acceleration  ETV
vector 217  scenario.node[4].veinsmobility  co2emission  ETV
vector 186  scenario.node[4].decisionMaker  DSRCMessagesReceived:vector  ETV
attr source  DSRCMessagesReceived
attr title  "DSRCMessagesReceived, vector"
vector 248  scenario.node[5].veinsmobility  posx  ETV
vector 249  scenario.node[5].veinsmobility  posy  ETV
vector 241  scenario.node[5].mobility  posx  ETV
vector 242  scenario.node[5].mobility  posy  ETV
vector 243  scenario.node[5].mobility  speed  ETV
vector 250  scenario.node[5].veinsmobility  speed  ETV
vector 244  scenario.node[5].mobility  acceleration  ETV
vector 245  scenario.node[5].mobility  co2emission  ETV
vector 251  scenario.node[5].veinsmobility  acceleration  ETV
vector 252  scenario.node[5].veinsmobility  co2emission  ETV
vector 185  scenario.node[4].decisionMaker  dontCareMessagesSent:vector  ETV
attr source  dontCareMessagesSent
attr title  "dontCareMessagesSent, vector"
vector 184  scenario.node[4].decisionMaker  lteMessagesSent:vector  ETV
attr source  lteMessagesSent
attr title  "lteMessagesSent, vector"
vector 188  scenario.node[4].UDP  sentPk:vector(packetBytes)  ETV
attr interpolationmode  none
attr source  sentPk
attr title  "packets sent, vector(packetBytes)"
vector 195  scenario.node[4].nic.pdcpRrc  receivedPacketFromUpperLayer:vector(packetBytes)  ETV
attr interpolationmode  none
attr source  receivedPacketFromUpperLayer
vector 198  scenario.node[4].nic.pdcpRrc  sentPacketToLowerLayer:vector(packetBytes)  ETV
attr interpolationmode  none
attr source  sentPacketToLowerLayer
vector 199  scenario.node[4].nic.mac  receivedPacketFromUpperLayer:vector(packetBytes)  ETV
attr interpolationmode  none
attr source  receivedPacketFromUpperLayer
vector 202  scenario.node[4].nic.mac  sentPacketToLowerLayer:vector(packetBytes)  ETV
attr interpolationmode  none
attr source  sentPacketToLowerLayer
vector 221  scenario.node[5].decisionMaker  DSRCMessagesReceived:vector  ETV
attr source  DSRCMessagesReceived
attr title  "DSRCMessagesReceived, vector"
vector 200  scenario.node[4].nic.mac  receivedPacketFromLowerLayer:vector(packetBytes)  ETV
attr interpolationmode  none
attr source  receivedPacketFromLowerLayer
vector 204  scenario.node[4].nic.phy  averageCqiDlvect:vector  ETV
attr source  averageCqiDlvect
attr title  "Average Cqi reported in DL, vector"
attr unit  cqi
vector 201  scenario.node[4].nic.mac  sentPacketToUpperLayer:vector(packetBytes)  ETV
attr interpolationmode  none
attr source  sentPacketToUpperLayer
vector 196  scenario.node[4].nic.pdcpRrc  receivedPacketFromLowerLayer:vector(packetBytes)  ETV
attr interpolationmode  none
attr source  receivedPacketFromLowerLayer
vector 197  scenario.node[4].nic.pdcpRrc  sentPacketToUpperLayer:vector(packetBytes)  ETV
attr interpolationmode  none
attr source  sentPacketToUpperLayer
vector 189  scenario.node[4].UDP  rcvdPk:vector(packetBytes)  ETV
attr interpolationmode  none
attr source  rcvdPk
attr title  "packets received, vector(packetBytes)"
vector 190  scenario.node[4].UDP  passedUpPk:vector(count)  ETV
attr interpolationmode  none
attr title  "packets passed up, vector(count)"
vector 187  scenario.node[4].decisionMaker  lteMessagesReceived:vector  ETV
attr source  lteMessagesReceived
attr title  "lteMessagesReceived, vector"
vector 220  scenario.node[5].decisionMaker  dontCareMessagesSent:vector  ETV
attr source  dontCareMessagesSent
attr title  "dontCareMessagesSent, vector"
vector 219  scenario.node[5].decisionMaker  lteMessagesSent:vector  ETV
attr source  lteMessagesSent
attr title  "lteMessagesSent, vector"
vector 223  scenario.node[5].UDP  sentPk:vector(packetBytes)  ETV
attr interpolationmode  none
attr source  sentPk
attr title  "packets sent, vector(packetBytes)"
vector 230  scenario.node[5].nic.pdcpRrc  receivedPacketFromUpperLayer:vector(packetBytes)  ETV
attr interpolationmode  none
attr source  receivedPacketFromUpperLayer
vector 233  scenario.node[5].nic.pdcpRrc  sentPacketToLowerLayer:vector(packetBytes)  ETV
attr interpolationmode  none
attr source  sentPacketToLowerLayer
vector 234  scenario.node[5].nic.mac  receivedPacketFromUpperLayer:vector(packetBytes)  ETV
attr interpolationmode  none
attr source  receivedPacketFromUpperLayer
vector 237  scenario.node[5].nic.mac  sentPacketToLowerLayer:vector(packetBytes)  ETV
attr interpolationmode  none
attr source  sentPacketToLowerLayer
vector 235  scenario.node[5].nic.mac  receivedPacketFromLowerLayer:vector(packetBytes)  ETV
attr interpolationmode  none
attr source  receivedPacketFromLowerLayer
vector 149  scenario.node[3].decisionMaker  lteMessagesSent:vector  ETV
attr source  lteMessagesSent
attr title  "lteMessagesSent, vector"
vector 169  scenario.node[3].nic.phy  averageCqiDlvect:vector  ETV
attr source  averageCqiDlvect
attr title  "Average Cqi reported in DL, vector"
attr unit  cqi
vector 166  scenario.node[3].nic.mac  sentPacketToUpperLayer:vector(packetBytes)  ETV
attr interpolationmode  none
attr source  sentPacketToUpperLayer
vector 161  scenario.node[3].nic.pdcpRrc  receivedPacketFromLowerLayer:vector(packetBytes)  ETV
attr interpolationmode  none
attr source  receivedPacketFromLowerLayer
vector 162  scenario.node[3].nic.pdcpRrc  sentPacketToUpperLayer:vector(packetBytes)  ETV
attr interpolationmode  none
attr source  sentPacketToUpperLayer
vector 154  scenario.node[3].UDP  rcvdPk:vector(packetBytes)  ETV
attr interpolationmode  none
attr source  rcvdPk
attr title  "packets received, vector(packetBytes)"
vector 155  scenario.node[3].UDP  passedUpPk:vector(count)  ETV
attr interpolationmode  none
attr title  "packets passed up, vector(count)"
vector 152  scenario.node[3].decisionMaker  lteMessagesReceived:vector  ETV
attr source  lteMessagesReceived
attr title  "lteMessagesReceived, vector"
vector 283  scenario.node[6].veinsmobility  posx  ETV
vector 284  scenario.node[6].veinsmobility  posy  ETV
vector 276  scenario.node[6].mobility  posx  ETV
vector 277  scenario.node[6].mobility  posy  ETV
vector 278  scenario.node[6].mobility  speed  ETV
vector 285  scenario.node[6].veinsmobility  speed  ETV
vector 256  scenario.node[6].decisionMaker  DSRCMessagesReceived:vector  ETV
attr source  DSRCMessagesReceived
attr title  "DSRCMessagesReceived, vector"
vector 279  scenario.node[6].mobility  acceleration  ETV
vector 280  scenario.node[6].mobility  co2emission  ETV
vector 286  scenario.node[6].veinsmobility  acceleration  ETV
vector 287  scenario.node[6].veinsmobility  co2emission  ETV
vector 318  scenario.node[7].veinsmobility  posx  ETV
vector 319  scenario.node[7].veinsmobility  posy  ETV
vector 255  scenario.node[6].decisionMaker  dontCareMessagesSent:vector  ETV
attr source  dontCareMessagesSent
attr title  "dontCareMessagesSent, vector"
vector 311  scenario.node[7].mobility  posx  ETV
vector 312  scenario.node[7].mobility  posy  ETV
vector 313  scenario.node[7].mobility  speed  ETV
vector 320  scenario.node[7].veinsmobility  speed  ETV
vector 314  scenario.node[7].mobility  acceleration  ETV
vector 315  scenario.node[7].mobility  co2emission  ETV
vector 321  scenario.node[7].veinsmobility  acceleration  ETV
vector 322  scenario.node[7].veinsmobility  co2emission  ETV
vector 291  scenario.node[7].decisionMaker  DSRCMessagesReceived:vector  ETV
attr source  DSRCMessagesReceived
attr title  "DSRCMessagesReceived, vector"
vector 239  scenario.node[5].nic.phy  averageCqiDlvect:vector  ETV
attr source  averageCqiDlvect
attr title  "Average Cqi reported in DL, vector"
attr unit  cqi
vector 236  scenario.node[5].nic.mac  sentPacketToUpperLayer:vector(packetBytes)  ETV
attr interpolationmode  none
attr source  sentPacketToUpperLayer
vector 231  scenario.node[5].nic.pdcpRrc  receivedPacketFromLowerLayer:vector(packetBytes)  ETV
attr interpolationmode  none
attr source  receivedPacketFromLowerLayer
vector 232  scenario.node[5].nic.pdcpRrc  sentPacketToUpperLayer:vector(packetBytes)  ETV
attr interpolationmode  none
attr source  sentPacketToUpperLayer
vector 224  scenario.node[5].UDP  rcvdPk:vector(packetBytes)  ETV
attr interpolationmode  none
attr source  rcvdPk
attr title  "packets received, vector(packetBytes)"
vector 225  scenario.node[5].UDP  passedUpPk:vector(count)  ETV
attr interpolationmode  none
attr title  "packets passed up, vector(count)"
vector 222  scenario.node[5].decisionMaker  lteMessagesReceived:vector  ETV
attr source  lteMessagesReceived
attr title  "lteMessagesReceived, vector"
vector 290  scenario.node[7].decisionMaker  dontCareMessagesSent:vector  ETV
attr source  dontCareMessagesSent
attr title  "dontCareMessagesSent, vector"
vector 293  scenario.node[7].UDP  sentPk:vector(packetBytes)  ETV
attr interpolationmode  none
attr source  sentPk
attr title  "packets sent, vector(packetBytes)"
vector 300  scenario.node[7].nic.pdcpRrc  receivedPacketFromUpperLayer:vector(packetBytes)  ETV
attr interpolationmode  none
attr source  receivedPacketFromUpperLayer
vector 303  scenario.node[7].nic.pdcpRrc  sentPacketToLowerLayer:vector(packetBytes)  ETV
attr interpolationmode  none
attr source  sentPacketToLowerLayer
vector 304  scenario.node[7].nic.mac  receivedPacketFromUpperLayer:vector(packetBytes)  ETV
attr interpolationmode  none
attr source  receivedPacketFromUpperLayer
vector 307  scenario.node[7].nic.mac  sentPacketToLowerLayer:vector(packetBytes)  ETV
attr interpolationmode  none
attr source  sentPacketToLowerLayer
vector 305  scenario.node[7].nic.mac  receivedPacketFromLowerLayer:vector(packetBytes)  ETV
attr interpolationmode  none
attr source  receivedPacketFromLowerLayer
vector 258  scenario.node[6].UDP  sentPk:vector(packetBytes)  ETV
attr interpolationmode  none
attr source  sentPk
attr title  "packets sent, vector(packetBytes)"
vector 265  scenario.node[6].nic.pdcpRrc  receivedPacketFromUpperLayer:vector(packetBytes)  ETV
attr interpolationmode  none
attr source  receivedPacketFromUpperLayer
vector 268  scenario.node[6].nic.pdcpRrc  sentPacketToLowerLayer:vector(packetBytes)  ETV
attr interpolationmode  none
attr source  sentPacketToLowerLayer
vector 269  scenario.node[6].nic.mac  receivedPacketFromUpperLayer:vector(packetBytes)  ETV
attr interpolationmode  none
attr source  receivedPacketFromUpperLayer
vector 272  scenario.node[6].nic.mac  sentPacketToLowerLayer:vector(packetBytes)  ETV
attr interpolationmode  none
attr source  sentPacketToLowerLayer
vector 270  scenario.node[6].nic.mac  receivedPacketFromLowerLayer:vector(packetBytes)  ETV
attr interpolationmode  none
attr source  receivedPacketFromLowerLayer
vector 254  scenario.node[6].decisionMaker  lteMessagesSent:vector  ETV
attr source  lteMessagesSent
attr title  "lteMessagesSent, vector"
vector 274  scenario.node[6].nic.phy  averageCqiDlvect:vector  ETV
attr source  averageCqiDlvect
attr title  "Average Cqi reported in DL, vector"
attr unit  cqi
vector 271  scenario.node[6].nic.mac  sentPacketToUpperLayer:vector(packetBytes)  ETV
attr interpolationmode  none
attr source  sentPacketToUpperLayer
vector 266  scenario.node[6].nic.pdcpRrc  receivedPacketFromLowerLayer:vector(packetBytes)  ETV
attr interpolationmode  none
attr source  receivedPacketFromLowerLayer
vector 267  scenario.node[6].nic.pdcpRrc  sentPacketToUpperLayer:vector(packetBytes)  ETV
attr interpolationmode  none
attr source  sentPacketToUpperLayer
vector 259  scenario.node[6].UDP  rcvdPk:vector(packetBytes)  ETV
attr interpolationmode  none
attr source  rcvdPk
attr title  "packets received, vector(packetBytes)"
vector 260  scenario.node[6].UDP  passedUpPk:vector(count)  ETV
attr interpolationmode  none
attr title  "packets passed up, vector(count)"
vector 257  scenario.node[6].decisionMaker  lteMessagesReceived:vector  ETV
attr source  lteMessagesReceived
attr title  "lteMessagesReceived, vector"
vector 353  scenario.node[8].veinsmobility  posx  ETV
vector 354  scenario.node[8].veinsmobility  posy  ETV
vector 326  scenario.node[8].decisionMaker  DSRCMessagesReceived:vector  ETV
attr source  DSRCMessagesReceived
attr title  "DSRCMessagesReceived, vector"
vector 346  scenario.node[8].mobility  posx  ETV
vector 347  scenario.node[8].mobility  posy  ETV
vector 348  scenario.node[8].mobility  speed  ETV
vector 355  scenario.node[8].veinsmobility  speed  ETV
vector 349  scenario.node[8].mobility  acceleration  ETV
vector 350  scenario.node[8].mobility  co2emission  ETV
vector 356  scenario.node[8].veinsmobility  acceleration  ETV
vector 357  scenario.node[8].veinsmobility  co2emission  ETV
vector 325  scenario.node[8].decisionMaker  dontCareMessagesSent:vector  ETV
attr source  dontCareMessagesSent
attr title  "dontCareMessagesSent, vector"
vector 324  scenario.node[8].decisionMaker  lteMessagesSent:vector  ETV
attr source  lteMessagesSent
attr title  "lteMessagesSent, vector"
vector 328  scenario.node[8].UDP  sentPk:vector(packetBytes)  ETV
attr interpolationmode  none
attr source  sentPk
attr title  "packets sent, vector(packetBytes)"
vector 335  scenario.node[8].nic.pdcpRrc  receivedPacketFromUpperLayer:vector(packetBytes)  ETV
attr interpolationmode  none
attr source  receivedPacketFromUpperLayer
vector 338  scenario.node[8].nic.pdcpRrc  sentPacketToLowerLayer:vector(packetBytes)  ETV
attr interpolationmode  none
attr source  sentPacketToLowerLayer